# Forces ldconfig when using apt/dpkg to install
activate-noawait ldconfig
